    1C
    1UHash: kA8P8KcF, Date: 11/29/2025, Unit system: MM_TON_S_C         
    1UUSER                                                              
    1UDATE              29.november.2025                                
    1UTIME              22:19:51                                        
    1UHOST                                                              
    1UPGM               CalculiX                                        
    1UVERSION           Version 2.22                             
    1UCOMPILETIME       Sun Aug  4 19:44:24     2024                    
    1UDIR                                                               
    1UDBN                                                               
    1UMAT    1ABS                                                       
    2C                          6266                                     1
 -1         1 1.00000E+01 1.75000E+01 0.00000E+00
 -1         2 1.02911E+01 1.95694E+01 0.00000E+00
 -1         3 1.00000E+01 1.75000E+01 8.00000E+00
 -1         4 1.02911E+01 1.95694E+01 8.00000E+00
 -1         5 2.50000E+01 1.75000E+01 0.00000E+00
 -1         6 2.50000E+01 1.75000E+01 8.00000E+00
 -1         7 2.40975E+01 2.10670E+01 0.00000E+00
 -1         8 2.40975E+01 2.10670E+01 8.00000E+00
 -1         9 1.44000E+01 5.54304E+01 0.00000E+00
 -1        10 1.44000E+01 5.54304E+01 8.00000E+00
 -1        11 2.06000E+01 5.54304E+01 0.00000E+00
 -1        12 2.06000E+01 5.54304E+01 8.00000E+00
 -1        13 0.00000E+00 1.75000E+01 0.00000E+00
 -1        14 3.37910E+01 2.38915E+01 0.00000E+00
 -1        15 3.37910E+01 2.38915E+01 8.00000E+00
 -1        16 0.00000E+00 1.75000E+01 8.00000E+00
 -1        17 2.56009E+01 2.56009E+01 8.00000E+00
 -1        18 2.46151E+01 2.46151E+01 8.00000E+00
 -1        19 2.56009E+01 2.56009E+01 0.00000E+00
 -1        20 2.46151E+01 2.46151E+01 0.00000E+00
 -1        21 2.54414E+01 4.91899E+01 8.00000E+00
 -1        22 8.14066E+00 5.92268E+01 8.00000E+00
 -1        23 2.54414E+01 4.91899E+01 0.00000E+00
 -1        24 8.14066E+00 5.92268E+01 0.00000E+00
 -1        25 1.00617E+01 1.84597E+01 0.00000E+00
 -1        26 1.00000E+01 1.75000E+01 1.05600E+00
 -1        27 1.00000E+01 1.75000E+01 2.55200E+00
 -1        28 1.00000E+01 1.75000E+01 4.80000E+00
 -1        29 1.00000E+01 1.75000E+01 6.81600E+00
 -1        30 1.00617E+01 1.84597E+01 8.00000E+00
 -1        31 1.02911E+01 1.95694E+01 6.80000E+00
 -1        32 1.02911E+01 1.95694E+01 4.78400E+00
 -1        33 1.02911E+01 1.95694E+01 2.53600E+00
 -1        34 1.02911E+01 1.95694E+01 1.04800E+00
 -1        35 2.47525E+01 1.55892E+01 0.00000E+00
 -1        36 2.38071E+01 1.34416E+01 0.00000E+00
 -1        37 2.21893E+01 1.16468E+01 0.00000E+00
 -1        38 2.00848E+01 1.04595E+01 0.00000E+00
 -1        39 1.77356E+01 1.00037E+01 0.00000E+00
 -1        40 1.53398E+01 1.03178E+01 0.00000E+00
 -1        41 1.31682E+01 1.13775E+01 0.00000E+00
 -1        42 1.14463E+01 1.30726E+01 0.00000E+00
 -1        43 1.04595E+01 1.49152E+01 0.00000E+00
 -1        44 1.00851E+01 1.63733E+01 0.00000E+00
 -1        45 2.50000E+01 1.75000E+01 5.32800E+00
 -1        46 2.50000E+01 1.75000E+01 2.47200E+00
 -1        47 2.47525E+01 1.55892E+01 8.00000E+00
 -1        48 2.38071E+01 1.34416E+01 8.00000E+00
 -1        49 2.21893E+01 1.16468E+01 8.00000E+00
 -1        50 2.00848E+01 1.04595E+01 8.00000E+00
 -1        51 1.77356E+01 1.00037E+01 8.00000E+00
 -1        52 1.53398E+01 1.03178E+01 8.00000E+00
 -1        53 1.31682E+01 1.13775E+01 8.00000E+00
 -1        54 1.14463E+01 1.30726E+01 8.00000E+00
 -1        55 1.04595E+01 1.49152E+01 8.00000E+00
 -1        56 1.00851E+01 1.63733E+01 8.00000E+00
 -1        57 2.47644E+01 1.93649E+01 0.00000E+00
 -1        58 2.40975E+01 2.10670E+01 6.40800E+00
 -1        59 2.40975E+01 2.10670E+01 4.76800E+00
 -1        60 2.40975E+01 2.10670E+01 3.12800E+00
 -1        61 2.40975E+01 2.10670E+01 1.48800E+00
 -1        62 2.47644E+01 1.93649E+01 8.00000E+00
 -1        63 1.44000E+01 5.54304E+01 2.00800E+00
 -1        64 1.44000E+01 5.54304E+01 4.00800E+00
 -1        65 1.44000E+01 5.54304E+01 6.00000E+00
 -1        66 2.02118E+01 5.39285E+01 0.00000E+00
 -1        67 1.90612E+01 5.27523E+01 0.00000E+00
 -1        68 1.75097E+01 5.23304E+01 0.00000E+00
 -1        69 1.59725E+01 5.27328E+01 0.00000E+00
 -1        70 1.48072E+01 5.38945E+01 0.00000E+00
 -1        71 2.06000E+01 5.54304E+01 6.37600E+00
 -1        72 2.06000E+01 5.54304E+01 4.77600E+00
 -1        73 2.06000E+01 5.54304E+01 3.19200E+00
 -1        74 2.06000E+01 5.54304E+01 1.52000E+00
 -1        75 2.01928E+01 5.38945E+01 8.00000E+00
 -1        76 1.90359E+01 5.27377E+01 8.00000E+00
 -1        77 1.74903E+01 5.23304E+01 8.00000E+00
 -1        78 1.59556E+01 5.27425E+01 8.00000E+00
 -1        79 1.48024E+01 5.39030E+01 8.00000E+00
 -1        80 1.72735E-01 1.50473E+01 0.00000E+00
 -1        81 6.87530E-01 1.26430E+01 0.00000E+00
 -1        82 1.53422E+00 1.03345E+01 0.00000E+00
 -1        83 2.69610E+00 8.16756E+00 0.00000E+00
 -1        84 4.15022E+00 6.18482E+00 0.00000E+00
 -1        85 5.86788E+00 4.42546E+00 0.00000E+00
 -1        86 7.81517E+00 2.92420E+00 0.00000E+00
 -1        87 9.95365E+00 1.71068E+00 0.00000E+00
 -1        88 1.22411E+01 8.08865E-01 0.00000E+00
 -1        89 1.46324E+01 2.36550E-01 0.00000E+00
 -1        90 1.70803E+01 5.03463E-03 0.00000E+00
 -1        91 1.95364E+01 1.18890E-01 0.00000E+00
 -1        92 2.19524E+01 5.75868E-01 0.00000E+00
 -1        93 2.42805E+01 1.36695E+00 0.00000E+00
 -1        94 2.64747E+01 2.47651E+00 0.00000E+00
 -1        95 2.84917E+01 3.88266E+00 0.00000E+00
 -1        96 3.02918E+01 5.55762E+00 0.00000E+00
 -1        97 3.18393E+01 7.46835E+00 0.00000E+00
 -1        98 3.31038E+01 9.57710E+00 0.00000E+00
 -1        99 3.40602E+01 1.18423E+01 0.00000E+00
 -1       100 3.46897E+01 1.42191E+01 0.00000E+00
 -1       101 3.49799E+01 1.66607E+01 0.00000E+00
 -1       102 3.49250E+01 1.91189E+01 0.00000E+00
 -1       103 3.45261E+01 2.15452E+01 0.00000E+00
 -1       104 3.37910E+01 2.38915E+01 2.67200E+00
 -1       105 3.37910E+01 2.38915E+01 5.33600E+00
 -1       106 1.72735E-01 1.50473E+01 8.00000E+00
 -1       107 6.87530E-01 1.26430E+01 8.00000E+00
 -1       108 1.53422E+00 1.03345E+01 8.00000E+00
 -1       109 2.69610E+00 8.16756E+00 8.00000E+00
 -1       110 4.15022E+00 6.18482E+00 8.00000E+00
 -1       111 5.86788E+00 4.42546E+00 8.00000E+00
 -1       112 7.81517E+00 2.92420E+00 8.00000E+00
 -1       113 9.95365E+00 1.71068E+00 8.00000E+00
 -1       114 1.22411E+01 8.08865E-01 8.00000E+00
 -1       115 1.46324E+01 2.36550E-01 8.00000E+00
 -1       116 1.70803E+01 5.03463E-03 8.00000E+00
 -1       117 1.95364E+01 1.18890E-01 8.00000E+00
 -1       118 2.19524E+01 5.75868E-01 8.00000E+00
 -1       119 2.42805E+01 1.36695E+00 8.00000E+00
 -1       120 2.64747E+01 2.47651E+00 8.00000E+00
 -1       121 2.84917E+01 3.88266E+00 8.00000E+00
 -1       122 3.02918E+01 5.55762E+00 8.00000E+00
 -1       123 3.18393E+01 7.46835E+00 8.00000E+00
 -1       124 3.31038E+01 9.57710E+00 8.00000E+00
 -1       125 3.40602E+01 1.18423E+01 8.00000E+00
 -1       126 3.46897E+01 1.42191E+01 8.00000E+00
 -1       127 3.49799E+01 1.66607E+01 8.00000E+00
 -1       128 3.49250E+01 1.91189E+01 8.00000E+00
 -1       129 3.45261E+01 2.15452E+01 8.00000E+00
 -1       130 0.00000E+00 1.75000E+01 5.32800E+00
 -1       131 0.00000E+00 1.75000E+01 2.66400E+00
 -1       132 2.51652E+01 2.51652E+01 8.00000E+00
 -1       133 2.56009E+01 2.56009E+01 7.22400E+00
 -1       134 2.56009E+01 2.56009E+01 6.12800E+00
 -1       135 2.56009E+01 2.56009E+01 4.47200E+00
 -1       136 2.56009E+01 2.56009E+01 2.36800E+00
 -1       137 2.56009E+01 2.56009E+01 7.52000E-01
 -1       138 2.51652E+01 2.51652E+01 0.00000E+00
 -1       139 2.46151E+01 2.46151E+01 8.48000E-01
 -1       140 2.46151E+01 2.46151E+01 2.28800E+00
 -1       141 2.46151E+01 2.46151E+01 4.11200E+00
 -1       142 2.46151E+01 2.46151E+01 5.91200E+00
 -1       143 2.46151E+01 2.46151E+01 7.12000E+00
 -1       144 1.47929E+01 5.69409E+01 0.00000E+00
 -1       145 1.58637E+01 5.80634E+01 0.00000E+00
 -1       146 1.73540E+01 5.85270E+01 0.00000E+00
 -1       147 1.88987E+01 5.81969E+01 0.00000E+00
 -1       148 2.01483E+01 5.70419E+01 0.00000E+00
 -1       149 1.47929E+01 5.69409E+01 8.00000E+00
 -1       150 1.58637E+01 5.80634E+01 8.00000E+00
 -1       151 1.73540E+01 5.85270E+01 8.00000E+00
 -1       152 1.88987E+01 5.81969E+01 8.00000E+00
 -1       153 2.01483E+01 5.70419E+01 8.00000E+00
 -1       154 1.06608E+01 2.08216E+01 8.00000E+00
 -1       155 1.12142E+01 2.25778E+01 8.00000E+00
 -1       156 1.19948E+01 2.48582E+01 8.00000E+00
 -1       157 1.28872E+01 2.72408E+01 8.00000E+00
 -1       158 1.38361E+01 2.95654E+01 8.00000E+00
 -1       159 1.48660E+01 3.18919E+01 8.00000E+00
 -1       160 1.59638E+01 3.41871E+01 8.00000E+00
 -1       161 1.71285E+01 3.64491E+01 8.00000E+00
 -1       162 1.83591E+01 3.86759E+01 8.00000E+00
 -1       163 1.96546E+01 4.08657E+01 8.00000E+00
 -1       164 2.10139E+01 4.30164E+01 8.00000E+00
 -1       165 2.24357E+01 4.51263E+01 8.00000E+00
 -1       166 2.39189E+01 4.71935E+01 8.00000E+00
 -1       167 2.67237E+01 5.13155E+01 8.00000E+00
 -1       168 2.74428E+01 5.36556E+01 8.00000E+00
 -1       169 2.75754E+01 5.61344E+01 8.00000E+00
 -1       170 2.71101E+01 5.85379E+01 8.00000E+00
 -1       171 2.60619E+01 6.07881E+01 8.00000E+00
 -1       172 2.45213E+01 6.26907E+01 8.00000E+00
 -1       173 2.25383E+01 6.41840E+01 8.00000E+00
 -1       174 2.02843E+01 6.51391E+01 8.00000E+00
 -1       175 1.78666E+01 6.55238E+01 8.00000E+00
 -1       176 1.53936E+01 6.53083E+01 8.00000E+00
 -1       177 1.30788E+01 6.45114E+01 8.00000E+00
 -1       178 1.09974E+01 6.31587E+01 8.00000E+00
 -1       179 9.32899E+00 6.13671E+01 8.00000E+00
 -1       180 7.21864E+00 5.68774E+01 8.00000E+00
 -1       181 6.35028E+00 5.45077E+01 8.00000E+00
 -1       182 5.53601E+00 5.21188E+01 8.00000E+00
 -1       183 4.77626E+00 4.97121E+01 8.00000E+00
 -1       184 4.07142E+00 4.72887E+01 8.00000E+00
 -1       185 3.43240E+00 4.48913E+01 8.00000E+00
 -1       186 2.83750E+00 4.24386E+01 8.00000E+00
 -1       187 2.29851E+00 3.99730E+01 8.00000E+00
 -1       188 1.81572E+00 3.74958E+01 8.00000E+00
 -1       189 1.38936E+00 3.50082E+01 8.00000E+00
 -1       190 1.01967E+00 3.25116E+01 8.00000E+00
 -1       191 7.11656E-01 3.00498E+01 8.00000E+00
 -1       192 4.54861E-01 2.75390E+01 8.00000E+00
 -1       193 2.55211E-01 2.50231E+01 8.00000E+00
 -1       194 1.12808E-01 2.25033E+01 8.00000E+00
 -1       195 2.77254E-02 1.99809E+01 8.00000E+00
 -1       196 3.24895E+01 2.57744E+01 8.00000E+00
 -1       197 3.04853E+01 2.68800E+01 8.00000E+00
 -1       198 2.84233E+01 2.70143E+01 8.00000E+00
 -1       199 2.69065E+01 2.65406E+01 8.00000E+00
 -1       200 2.61160E+01 2.60500E+01 8.00000E+00
 -1       201 2.41238E+01 2.39683E+01 8.00000E+00
 -1       202 2.37485E+01 2.27628E+01 8.00000E+00
 -1       203 2.67237E+01 5.13155E+01 0.00000E+00
 -1       204 2.74428E+01 5.36556E+01 0.00000E+00
 -1       205 2.75754E+01 5.61344E+01 0.00000E+00
 -1       206 2.71101E+01 5.85379E+01 0.00000E+00
 -1       207 2.60619E+01 6.07881E+01 0.00000E+00
 -1       208 2.45213E+01 6.26907E+01 0.00000E+00
 -1       209 2.25383E+01 6.41840E+01 0.00000E+00
 -1       210 2.02843E+01 6.51391E+01 0.00000E+00
 -1       211 1.78666E+01 6.55238E+01 0.00000E+00
 -1       212 1.53936E+01 6.53083E+01 0.00000E+00
 -1       213 1.30788E+01 6.45114E+01 0.00000E+00
 -1       214 1.09974E+01 6.31587E+01 0.00000E+00
 -1       215 9.32899E+00 6.13671E+01 0.00000E+00
 -1       216 1.06608E+01 2.08216E+01 0.00000E+00
 -1       217 1.12142E+01 2.25778E+01 0.00000E+00
 -1       218 1.19948E+01 2.48582E+01 0.00000E+00
 -1       219 1.28872E+01 2.72408E+01 0.00000E+00
 -1       220 1.38361E+01 2.95654E+01 0.00000E+00
 -1       221 1.48660E+01 3.18919E+01 0.00000E+00
 -1       222 1.59638E+01 3.41871E+01 0.00000E+00
 -1       223 1.71285E+01 3.64491E+01 0.00000E+00
 -1       224 1.83591E+01 3.86759E+01 0.00000E+00
 -1       225 1.96546E+01 4.08657E+01 0.00000E+00
 -1       226 2.10139E+01 4.30164E+01 0.00000E+00
 -1       227 2.24357E+01 4.51263E+01 0.00000E+00
 -1       228 2.39189E+01 4.71935E+01 0.00000E+00
 -1       229 2.37492E+01 2.27705E+01 0.00000E+00
 -1       230 2.41257E+01 2.39717E+01 0.00000E+00
 -1       231 2.61239E+01 2.60560E+01 0.00000E+00
 -1       232 2.69421E+01 2.65581E+01 0.00000E+00
 -1       233 2.84527E+01 2.70184E+01 0.00000E+00
 -1       234 3.05139E+01 2.68719E+01 0.00000E+00
 -1       235 3.25042E+01 2.57611E+01 0.00000E+00
 -1       236 7.21864E+00 5.68774E+01 0.00000E+00
 -1       237 6.35028E+00 5.45077E+01 0.00000E+00
 -1       238 5.53601E+00 5.21188E+01 0.00000E+00
 -1       239 4.77626E+00 4.97121E+01 0.00000E+00
 -1       240 4.07142E+00 4.72887E+01 0.00000E+00
 -1       241 3.43240E+00 4.48913E+01 0.00000E+00
 -1       242 2.83750E+00 4.24386E+01 0.00000E+00
 -1       243 2.29851E+00 3.99730E+01 0.00000E+00
 -1       244 1.81572E+00 3.74958E+01 0.00000E+00
 -1       245 1.38936E+00 3.50082E+01 0.00000E+00
 -1       246 1.01967E+00 3.25116E+01 0.00000E+00
 -1       247 7.11656E-01 3.00498E+01 0.00000E+00
 -1       248 4.54861E-01 2.75390E+01 0.00000E+00
 -1       249 2.55211E-01 2.50231E+01 0.00000E+00
 -1       250 1.12808E-01 2.25033E+01 0.00000E+00
 -1       251 2.77254E-02 1.99809E+01 0.00000E+00
 -1       252 8.14066E+00 5.92268E+01 2.67200E+00
 -1       253 8.14066E+00 5.92268E+01 5.33600E+00
 -1       254 2.54414E+01 4.91899E+01 5.32800E+00
 -1       255 2.54414E+01 4.91899E+01 2.66400E+00
 -1       256 1.00642E+01 1.84794E+01 1.43058E+00
 -1       257 1.02781E+01 1.54768E+01 3.84851E+00
 -1       258 2.44647E+01 1.47173E+01 1.97454E+00
 -1       259 2.14077E+01 1.10984E+01 2.70401E+00
 -1       260 1.66353E+01 1.00500E+01 2.23478E+00
 -1       261 1.23605E+01 1.20378E+01 2.76031E+00
 -1       262 1.01810E+01 1.58624E+01 1.58539E+00
 -1       263 2.47862E+01 1.57218E+01 3.91795E+00
 -1       264 2.44382E+01 1.46519E+01 5.88529E+00
 -1       265 2.29957E+01 1.23964E+01 5.26920E+00
 -1       266 2.11101E+01 1.09260E+01 5.71077E+00
 -1       267 1.88258E+01 1.01181E+01 5.93652E+00
 -1       268 1.62268E+01 1.01089E+01 5.21293E+00
 -1       269 1.38957E+01 1.09229E+01 5.37924E+00
 -1       270 1.20974E+01 1.22979E+01 5.73100E+00
 -1       271 1.08013E+01 1.41269E+01 6.04196E+00
 -1       272 1.01802E+01 1.58659E+01 6.26818E+00
 -1       273 1.90155E+01 1.01547E+01 2.03753E+00
 -1       274 2.32044E+01 1.26307E+01 2.26712E+00
 -1       275 1.44543E+01 1.06463E+01 2.59918E+00
 -1       276 1.08161E+01 1.40978E+01 1.97238E+00
 -1       277 2.40642E+01 1.38721E+01 3.88519E+00
 -1       278 1.11617E+01 1.34905E+01 4.04561E+00
 -1       279 1.79940E+01 1.00163E+01 3.91204E+00
 -1       280 1.98141E+01 1.03659E+01 4.05150E+00
 -1       281 2.47568E+01 1.93944E+01 1.90671E+00
 -1       282 2.47555E+01 1.93995E+01 5.95757E+00
 -1       283 2.47590E+01 1.93859E+01 3.93209E+00
 -1       284 1.46805E+01 5.41419E+01 3.09388E+00
 -1       285 1.95482E+01 5.31034E+01 1.36412E+00
 -1       286 1.66034E+01 5.24629E+01 1.66791E+00
 -1       287 2.02849E+01 5.40687E+01 5.31886E+00
 -1       288 2.02849E+01 5.40687E+01 2.15585E+00
 -1       289 1.97967E+01 5.33483E+01 6.57730E+00
 -1       290 1.83957E+01 5.24626E+01 6.50909E+00
 -1       291 1.67077E+01 5.24334E+01 6.48102E+00
 -1       292 1.52104E+01 5.33405E+01 6.31840E+00
 -1       293 1.51351E+01 5.34261E+01 1.60504E+00
 -1       294 1.48286E+01 5.38576E+01 4.65975E+00
 -1       295 1.82428E+01 5.24207E+01 1.58927E+00
 -1       296 2.02384E+01 5.39774E+01 3.82372E+00
 -1       297 1.57217E+01 5.28912E+01 3.23555E+00
 -1       298 1.75284E+01 5.23306E+01 3.44833E+00
 -1       299 1.92827E+01 5.28943E+01 2.90775E+00
 -1       300 1.76319E+01 5.23332E+01 5.15394E+00
 -1       301 1.61253E+01 5.26519E+01 4.83662E+00
 -1       302 1.91631E+01 5.28143E+01 4.79646E+00
 -1       303 5.04488E-01 1.33284E+01 2.87980E+00
 -1       304 2.28015E+00 8.86252E+00 2.68609E+00
 -1       305 5.26865E+00 4.98424E+00 2.66809E+00
 -1       306 9.22208E+00 2.08163E+00 2.66592E+00
 -1       307 1.38276E+01 3.89660E-01 2.66104E+00
 -1       308 1.87129E+01 4.20827E-02 2.60611E+00
 -1       309 2.31308E+01 9.30624E-01 1.97211E+00
 -1       310 2.71750E+01 2.91770E+00 2.60628E+00
 -1       311 3.08371E+01 6.16987E+00 2.66150E+00
 -1       312 3.34608E+01 1.03234E+01 2.66600E+00
 -1       313 3.48288E+01 1.50583E+01 2.67532E+00
 -1       314 3.48011E+01 2.01311E+01 2.70465E+00
 -1       315 3.43238E+01 2.23177E+01 1.77891E+00
 -1       316 2.98871E-01 1.42796E+01 5.54767E+00
 -1       317 9.36946E-01 1.18506E+01 5.41956E+00
 -1       318 1.89127E+00 9.58687E+00 5.36305E+00
 -1       319 3.15146E+00 7.48155E+00 5.34253E+00
 -1       320 4.69530E+00 5.57148E+00 5.33574E+00
 -1       321 6.49267E+00 3.89527E+00 5.33349E+00
 -1       322 8.50735E+00 2.48726E+00 5.33226E+00
 -1       323 1.07014E+01 1.37458E+00 5.33150E+00
 -1       324 1.30311E+01 5.80231E-01 5.32885E+00
 -1       325 1.54543E+01 1.19985E-01 5.32062E+00
 -1       326 1.79374E+01 5.46692E-03 5.29197E+00
 -1       327 2.04646E+01 2.52938E-01 5.18680E+00
 -1       328 2.31304E+01 9.30487E-01 4.76846E+00
 -1       329 2.56575E+01 2.01758E+00 5.18721E+00
 -1       330 2.78114E+01 3.36049E+00 5.29155E+00
 -1       331 2.97107E+01 4.96408E+00 5.32072E+00
 -1       332 3.13538E+01 6.80778E+00 5.32869E+00
 -1       333 3.27183E+01 8.85974E+00 5.33065E+00
 -1       334 3.37806E+01 1.10818E+01 5.33195E+00
 -1       335 3.45209E+01 1.34333E+01 5.33561E+00
 -1       336 3.49244E+01 1.58756E+01 5.34627E+00
 -1       337 3.49787E+01 1.83639E+01 5.39173E+00
 -1       338 3.46811E+01 2.08254E+01 5.63018E+00
 -1       339 1.22824E+00 1.10595E+01 2.73117E+00
 -1       340 3.63659E+00 6.82030E+00 2.67221E+00
 -1       341 7.14229E+00 3.39440E+00 2.66608E+00
 -1       342 1.14651E+01 1.07349E+00 2.66470E+00
 -1       343 1.62623E+01 4.38210E-02 2.64900E+00
 -1       344 2.10820E+01 3.70507E-01 2.45796E+00
 -1       345 2.50971E+01 1.73505E+00 2.45909E+00
 -1       346 2.91159E+01 4.41104E+00 2.64911E+00
 -1       347 3.22953E+01 8.15388E+00 2.66481E+00
 -1       348 3.43109E+01 1.26376E+01 2.66793E+00
 -1       349 3.49999E+01 1.75566E+01 2.68985E+00
 -1       350 3.43609E+01 2.21863E+01 3.75818E+00
 -1       351 1.15253E-01 1.54949E+01 3.36905E+00
 -1       352 1.51226E+01 5.74199E+01 1.59910E+00
 -1       353 1.81223E+01 5.84673E+01 1.52819E+00
 -1       354 1.46927E+01 5.67453E+01 3.12886E+00
 -1       355 1.48478E+01 5.70354E+01 4.89769E+00
 -1       356 1.46207E+01 5.65791E+01 6.62579E+00
 -1       357 1.54638E+01 5.77679E+01 6.42661E+00
 -1       358 1.70480E+01 5.84973E+01 6.38720E+00
 -1       359 1.88603E+01 5.82160E+01 6.61060E+00
 -1       360 2.01080E+01 5.71062E+01 5.76339E+00
 -1       361 2.01449E+01 5.70473E+01 3.96578E+00
 -1       362 2.02530E+01 5.68555E+01 2.19046E+00
 -1       363 1.65160E+01 5.83701E+01 1.58142E+00
 -1       364 1.94488E+01 5.78412E+01 1.33774E+00
 -1       365 1.86015E+01 5.83281E+01 4.78854E+00
 -1       366 1.57384E+01 5.79813E+01 3.23161E+00
 -1       367 1.64148E+01 5.83343E+01 4.78421E+00
 -1       368 1.91263E+01 5.80696E+01 2.91073E+00
 -1       369 1.74037E+01 5.85289E+01 3.19469E+00
 -1       370 9.22981E+00 2.06311E+01 8.00000E+00
 -1       371 9.27585E+00 2.22022E+01 8.00000E+00
 -1       372 1.02102E+01 2.67631E+01 8.00000E+00
 -1       373 1.22445E+01 3.16117E+01 8.00000E+00
 -1       374 1.45116E+01 3.63979E+01 8.00000E+00
 -1       375 1.70911E+01 4.10005E+01 8.00000E+00
 -1       376 1.99599E+01 4.52924E+01 8.00000E+00
 -1       377 2.25770E+01 4.96163E+01 8.00000E+00
 -1       378 2.51109E+01 5.33988E+01 8.00000E+00
 -1       379 2.50788E+01 5.59806E+01 8.00000E+00
 -1       380 2.40970E+01 5.87343E+01 8.00000E+00
 -1       381 2.29619E+01 6.11763E+01 8.00000E+00
 -1       382 2.04065E+01 6.21416E+01 8.00000E+00
 -1       383 1.78999E+01 6.32693E+01 8.00000E+00
 -1       384 1.52827E+01 6.23374E+01 8.00000E+00
 -1       385 1.23839E+01 6.17722E+01 8.00000E+00
 -1       386 1.15023E+01 5.92140E+01 8.00000E+00
 -1       387 8.67692E+00 5.48446E+01 8.00000E+00
 -1       388 7.09022E+00 5.01445E+01 8.00000E+00
 -1       389 5.96282E+00 4.53589E+01 8.00000E+00
 -1       390 4.50795E+00 4.07465E+01 8.00000E+00
 -1       391 3.81202E+00 3.60130E+01 8.00000E+00
 -1       392 3.17247E+00 3.11352E+01 8.00000E+00
 -1       393 2.74986E+00 2.62357E+01 8.00000E+00
 -1       394 2.32559E+00 2.14085E+01 8.00000E+00
 -1       395 2.33872E+00 1.66771E+01 8.00000E+00
 -1       396 3.22125E+00 1.22369E+01 8.00000E+00
 -1       397 5.05448E+00 8.24590E+00 8.00000E+00
 -1       398 7.95696E+00 5.11339E+00 8.00000E+00
 -1       399 1.18488E+01 3.27792E+00 8.00000E+00
 -1       400 1.60764E+01 2.17907E+00 8.00000E+00
 -1       401 2.03981E+01 2.17979E+00 8.00000E+00
 -1       402 2.44206E+01 3.61041E+00 8.00000E+00
 -1       403 2.77050E+01 6.49613E+00 8.00000E+00
 -1       404 3.08950E+01 9.49081E+00 8.00000E+00
 -1       405 3.23579E+01 1.35703E+01 8.00000E+00
 -1       406 3.29577E+01 1.79336E+01 8.00000E+00
 -1       407 3.21413E+01 2.22886E+01 8.00000E+00
 -1       408 3.12593E+01 2.43339E+01 8.00000E+00
 -1       409 2.92914E+01 2.50399E+01 8.00000E+00
 -1       410 2.65076E+01 2.53672E+01 8.00000E+00
 -1       411 2.54226E+01 2.43290E+01 8.00000E+00
 -1       412 2.54310E+01 2.22424E+01 8.00000E+00
 -1       413 2.61072E+01 2.06275E+01 8.00000E+00
 -1       414 2.67759E+01 1.85080E+01 8.00000E+00
 -1       415 2.67215E+01 1.61636E+01 8.00000E+00
 -1       416 2.60745E+01 1.36760E+01 8.00000E+00
 -1       417 2.48583E+01 1.09092E+01 8.00000E+00
 -1       418 2.22784E+01 9.22161E+00 8.00000E+00
 -1       419 1.94740E+01 8.24273E+00 8.00000E+00
 -1       420 1.63432E+01 7.80116E+00 8.00000E+00
 -1       421 1.30250E+01 8.81303E+00 8.00000E+00
 -1       422 1.08354E+01 1.08348E+01 8.00000E+00
 -1       423 9.46968E+00 1.29342E+01 8.00000E+00
 -1       424 8.80459E+00 1.49498E+01 8.00000E+00
 -1       425 8.54826E+00 1.65749E+01 8.00000E+00
 -1       426 9.07596E+00 1.92254E+01 8.00000E+00
 -1       427 2.25266E+01 5.41635E+01 8.00000E+00
 -1       428 2.12881E+01 5.20894E+01 8.00000E+00
 -1       429 1.97770E+01 5.02065E+01 8.00000E+00
 -1       430 1.63100E+01 5.09366E+01 8.00000E+00
 -1       431 1.39402E+01 5.25665E+01 8.00000E+00
 -1       432 1.31611E+01 5.44075E+01 8.00000E+00
 -1       433 1.27883E+01 5.66305E+01 8.00000E+00
 -1       434 1.41010E+01 5.84442E+01 8.00000E+00
 -1       435 1.58778E+01 5.97622E+01 8.00000E+00
 -1       436 1.82722E+01 6.04574E+01 8.00000E+00
 -1       437 2.09265E+01 5.93156E+01 8.00000E+00
 -1       438 2.22971E+01 5.67810E+01 8.00000E+00
 -1       439 9.58844E+00 2.43746E+01 8.00000E+00
 -1       440 1.11512E+01 2.91728E+01 8.00000E+00
 -1       441 1.33238E+01 3.40260E+01 8.00000E+00
 -1       442 1.57770E+01 3.87320E+01 8.00000E+00
 -1       443 1.84993E+01 4.31577E+01 8.00000E+00
 -1       444 2.13129E+01 4.75058E+01 8.00000E+00
 -1       445 2.39008E+01 5.15817E+01 8.00000E+00
 -1       446 9.93248E+00 5.70425E+01 8.00000E+00
 -1       447 7.74440E+00 5.25395E+01 8.00000E+00
 -1       448 6.57134E+00 4.77419E+01 8.00000E+00
 -1       449 5.24515E+00 4.30180E+01 8.00000E+00
 -1       450 4.03576E+00 3.83730E+01 8.00000E+00
 -1       451 3.47641E+00 3.35976E+01 8.00000E+00
 -1       452 2.95497E+00 2.86784E+01 8.00000E+00
 -1       453 2.52945E+00 2.38108E+01 8.00000E+00
 -1       454 2.23536E+00 1.90148E+01 8.00000E+00
 -1       455 2.66653E+00 1.44201E+01 8.00000E+00
 -1       456 3.95075E+00 1.01621E+01 8.00000E+00
 -1       457 6.36723E+00 6.60094E+00 8.00000E+00
 -1       458 9.90089E+00 4.10384E+00 8.00000E+00
 -1       459 1.40053E+01 2.60301E+00 8.00000E+00
 -1       460 1.82463E+01 1.89054E+00 8.00000E+00
 -1       461 2.24145E+01 2.72460E+00 8.00000E+00
 -1       462 2.61348E+01 5.01087E+00 8.00000E+00
 -1       463 2.94212E+01 7.84691E+00 8.00000E+00
 -1       464 3.18190E+01 1.14849E+01 8.00000E+00
 -1       465 3.28386E+01 1.56979E+01 8.00000E+00
 -1       466 3.27198E+01 2.00995E+01 8.00000E+00
 -1       467 2.77665E+01 2.53876E+01 8.00000E+00
 -1       468 2.57819E+01 2.49903E+01 8.00000E+00
 -1       469 2.49622E+01 2.35314E+01 8.00000E+00
 -1       470 8.84776E+00 1.79032E+01 8.00000E+00
 -1       471 6.89831E+00 4.11229E+01 8.00000E+00
 -1       472 1.06386E+01 3.37575E+01 8.00000E+00
 -1       473 1.31693E+01 3.87205E+01 8.00000E+00
 -1       474 1.58722E+01 4.34405E+01 8.00000E+00
 -1       475 1.89694E+01 4.75704E+01 8.00000E+00
 -1       476 6.17166E+00 3.70747E+01 8.00000E+00
 -1       477 1.38251E+01 6.03360E+01 8.00000E+00
 -1       478 2.69800E+01 2.45024E+01 8.00000E+00
 -1       479 8.99049E+00 4.82649E+01 8.00000E+00
 -1       480 9.86909E+00 5.29077E+01 8.00000E+00
 -1       481 7.78468E+00 4.33734E+01 8.00000E+00
 -1       482 9.18877E+00 5.06624E+01 8.00000E+00
 -1       483 5.96941E+00 3.92106E+01 8.00000E+00
 -1       484 8.58326E+00 4.57952E+01 8.00000E+00
 -1       485 5.52802E+00 3.22599E+01 8.00000E+00
 -1       486 5.31036E+00 2.73777E+01 8.00000E+00
 -1       487 4.77225E+00 2.26243E+01 8.00000E+00
 -1       488 4.41291E+00 1.80879E+01 8.00000E+00
 -1       489 5.06567E+00 1.38817E+01 8.00000E+00
 -1       490 6.05582E+00 1.00075E+01 8.00000E+00
 -1       491 8.28577E+00 7.05716E+00 8.00000E+00
 -1       492 1.17859E+01 6.08438E+00 8.00000E+00
 -1       493 1.56886E+01 4.88459E+00 8.00000E+00
 -1       494 1.91239E+01 3.67899E+00 8.00000E+00
 -1       495 2.26633E+01 4.66767E+00 8.00000E+00
 -1       496 2.48708E+01 7.77316E+00 8.00000E+00
 -1       497 2.88649E+01 9.81161E+00 8.00000E+00
 -1       498 3.00559E+01 1.30569E+01 8.00000E+00
 -1       499 3.11577E+01 1.69499E+01 8.00000E+00
 -1       500 3.06908E+01 2.08340E+01 8.00000E+00
 -1       501 2.62120E+01 2.45096E+01 8.00000E+00
 -1       502 2.72896E+01 2.21607E+01 8.00000E+00
 -1       503 2.95680E+01 2.26539E+01 8.00000E+00
 -1       504 7.71346E+00 1.87099E+01 8.00000E+00
 -1       505 6.78419E+00 1.72795E+01 8.00000E+00
 -1       506 7.58928E+00 2.60001E+01 8.00000E+00
 -1       507 2.85376E+01 2.01251E+01 8.00000E+00
 -1       508 2.89070E+01 1.71713E+01 8.00000E+00
 -1       509 7.04835E+00 2.14632E+01 8.00000E+00
 -1       510 2.83072E+01 1.44928E+01 8.00000E+00
 -1       511 2.76952E+01 1.18103E+01 8.00000E+00
 -1       512 2.17725E+01 6.74744E+00 8.00000E+00
 -1       513 1.85876E+01 5.86978E+00 8.00000E+00
 -1       514 1.41065E+01 6.59654E+00 8.00000E+00
 -1       515 1.00409E+01 8.48630E+00 8.00000E+00
 -1       516 8.16508E+00 1.09054E+01 8.00000E+00
 -1       517 7.35189E+00 1.32919E+01 8.00000E+00
 -1       518 6.91915E+00 1.53764E+01 8.00000E+00
 -1       519 9.67294E+00 3.12052E+01 8.00000E+00
 -1       520 7.23309E+00 2.36318E+01 8.00000E+00
 -1       521 1.76555E+01 4.96367E+01 8.00000E+00
 -1       522 1.46470E+01 5.08463E+01 8.00000E+00
 -1       523 1.19765E+01 5.28698E+01 8.00000E+00
 -1       524 7.84739E+00 2.00131E+01 8.00000E+00
 -1       525 1.10604E+01 5.48643E+01 8.00000E+00
 -1       526 1.18088E+01 3.62632E+01 8.00000E+00
 -1       527 1.44858E+01 4.11293E+01 8.00000E+00
 -1       528 1.74881E+01 4.54227E+01 8.00000E+00
 -1       529 5.98689E+00 3.46814E+01 8.00000E+00
 -1       530 5.36973E+00 2.97792E+01 8.00000E+00
 -1       531 5.02958E+00 2.49648E+01 8.00000E+00
 -1       532 4.43190E+00 2.03748E+01 8.00000E+00
 -1       533 4.69431E+00 1.59880E+01 8.00000E+00
 -1       534 5.63689E+00 1.18642E+01 8.00000E+00
 -1       535 7.39252E+00 8.66017E+00 8.00000E+00
 -1       536 9.74356E+00 6.14675E+00 8.00000E+00
 -1       537 1.34792E+01 4.67126E+00 8.00000E+00
 -1       538 1.74030E+01 3.77162E+00 8.00000E+00
 -1       539 2.08072E+01 4.44481E+00 8.00000E+00
 -1       540 2.40686E+01 5.74588E+00 8.00000E+00
 -1       541 2.70101E+01 9.05679E+00 8.00000E+00
 -1       542 2.98636E+01 1.12019E+01 8.00000E+00
 -1       543 3.05315E+01 1.51012E+01 8.00000E+00
 -1       544 3.07415E+01 1.88618E+01 8.00000E+00
 -1       545 8.12457E+00 2.86744E+01 8.00000E+00
 -1       546 1.27467E+01 5.08342E+01 8.00000E+00
 -1       547 1.55607E+01 4.89471E+01 8.00000E+00
 -1       548 2.78949E+01 2.38167E+01 8.00000E+00
 -1       549 1.47484E+01 4.62240E+01 8.00000E+00
 -1       550 1.09700E+01 5.12616E+01 8.00000E+00
 -1       551 7.36688E+00 3.09790E+01 8.00000E+00
 -1       552 1.31587E+01 4.37063E+01 8.00000E+00
 -1       553 1.18858E+01 4.11644E+01 8.00000E+00
 -1       554 8.79480E+00 3.60424E+01 8.00000E+00
 -1       555 8.03449E+00 3.32182E+01 8.00000E+00
 -1       556 2.62788E+01 2.34822E+01 8.00000E+00
 -1       557 1.05675E+01 3.86600E+01 8.00000E+00
 -1       558 9.34563E+00 4.11344E+01 8.00000E+00
 -1       559 1.68836E+01 4.74952E+01 8.00000E+00
 -1       560 1.15045E+01 4.64381E+01 8.00000E+00
 -1       561 1.11327E+01 4.91895E+01 8.00000E+00
 -1       562 6.16986E+00 1.93519E+01 8.00000E+00
 -1       563 1.04251E+01 4.36341E+01 8.00000E+00
 -1       564 8.09725E+00 3.88177E+01 8.00000E+00
 -1       565 1.33779E+01 4.86197E+01 8.00000E+00
 -1       566 2.41163E+01 5.14906E+01 0.00000E+00
 -1       567 2.51779E+01 5.33762E+01 0.00000E+00
 -1       568 2.50852E+01 5.59860E+01 0.00000E+00
 -1       569 2.39789E+01 5.87770E+01 0.00000E+00
 -1       570 2.23460E+01 6.13178E+01 0.00000E+00
 -1       571 1.98894E+01 6.32255E+01 0.00000E+00
 -1       572 1.72877E+01 6.29322E+01 0.00000E+00
 -1       573 1.48280E+01 6.22495E+01 0.00000E+00
 -1       574 1.23678E+01 6.14720E+01 0.00000E+00
 -1       575 1.12090E+01 5.91593E+01 0.00000E+00
 -1       576 9.34591E+00 2.05738E+01 0.00000E+00
 -1       577 9.45487E+00 2.21845E+01 0.00000E+00
 -1       578 9.72944E+00 2.43847E+01 0.00000E+00
 -1       579 1.02831E+01 2.67859E+01 0.00000E+00
 -1       580 1.10466E+01 2.92500E+01 0.00000E+00
 -1       581 1.19495E+01 3.17318E+01 0.00000E+00
 -1       582 1.31043E+01 3.41209E+01 0.00000E+00